LAMMPS data file for tetracyclic alpha polymer (g-factor = 0.445)

8 atoms
8 bonds
1 atom types
1 bond types

-15.0 15.0 xlo xhi
-15.0 15.0 ylo yhi
-15.0 15.0 zlo zhi

Masses

1 1.0

Atoms

1 1 1 0.0 0.0 0.0
2 1 1 0.0 2.0 0.0
3 1 1 0.0 2.0 2.0
4 1 1 0.0 0.0 2.0
5 1 1 0.0 -2.0 0.0
6 1 1 0.0 -2.0 -2.0
7 1 1 0.0 0.0 -2.0
8 1 1 0.0 1.0 1.0

Bonds

1 1 1 2
2 1 2 3
3 1 3 4
4 1 4 1
5 1 1 5
6 1 5 6
7 1 6 7
8 1 7 1
